72	0	*	1
9	1	*	1
24	2	*	1
104	3	*	1
131	4	*	1
57	5	*	1
54	6	*	1
86	7	*	1
44	8	*	1
114	9	*	1
15	10	*	1
110	11	*	1
140	12	*	1
14	13	*	1
150	14	*	1
56	15	*	1
66	16	*	1
163	17	*	1
17	18	*	1
76	19	*	1
23	20	*	1
135	21	*	1
144	22	*	1
68	23	*	1
133	24	*	1
152	25	*	1
0	26	*	1
4	27	*	1
123	28	*	1
16	29	*	1
113	30	*	1
117	31	*	1
19	32	*	1
64	33	*	1
75	34	*	1
90	35	*	1
138	36	*	1
40	37	*	1
116	38	*	1
18	39	*	1
160	40	*	1
13	41	*	1
82	42	*	1
118	43	*	1
34	44	*	1
62	45	*	1
7	46	*	1
5	47	*	1
70	48	*	1
147	49	*	1
134	50	*	1
65	51	*	1
94	52	*	1
166	53	*	1
142	54	*	1
39	55	*	1
158	56	*	1
42	57	*	1
61	58	*	1
36	59	*	1
139	60	*	1
60	61	*	1
93	62	*	1
97	63	*	1
126	64	*	1
69	65	*	1
120	66	*	1
1	67	*	1
53	68	*	1
119	69	*	1
11	70	*	1
124	71	*	1
49	72	*	1
41	73	*	1
99	74	*	1
101	75	*	1
58	76	*	1
87	77	*	1
121	78	*	1
137	79	*	1
26	80	*	1
73	81	*	1
89	82	*	1
151	83	*	1
35	84	*	1
63	85	*	1
59	86	*	1
132	87	*	1
136	88	*	1
92	89	*	1
77	90	*	1
98	91	*	1
122	92	*	1
48	93	*	1
50	94	*	1
33	95	*	1
129	96	*	1
30	97	*	1
108	98	*	1
128	99	*	1
78	100	*	1
27	101	*	1
38	102	*	1
127	103	*	1
154	104	*	1
67	105	*	1
95	106	*	1
102	107	*	1
107	108	*	1
125	109	*	1
100	110	*	1
146	111	*	1
51	112	*	1
25	113	*	1
55	114	*	1
167	115	*	1
74	116	*	1
165	117	*	1
141	118	*	1
88	119	*	1
80	120	*	1
156	121	*	1
159	122	*	1
21	123	*	1
46	124	*	1
103	125	*	1
157	126	*	1
3	127	*	1
37	128	*	1
115	129	*	1
28	130	*	1
149	131	*	1
52	132	*	1
155	133	*	1
83	134	*	1
85	135	*	1
31	136	*	1
162	137	*	1
12	138	*	1
130	139	*	1
164	140	*	1
8	141	*	1
29	142	*	1
111	143	*	1
47	144	*	1
79	145	*	1
81	146	*	1
84	147	*	1
106	148	*	1
148	149	*	1
22	150	*	1
43	151	*	1
105	152	*	1
2	153	*	1
20	154	*	1
71	155	*	1
109	156	*	1
153	157	*	1
161	158	*	1
6	159	*	1
32	160	*	1
10	161	*	1
96	162	*	1
143	163	*	1
145	164	*	1
45	165	*	1
91	166	*	1
112	167	*	1
