64	0	*	1
18	1	*	1
113	2	*	1
140	3	*	1
185	4	*	1
49	5	*	1
46	6	*	1
78	7	*	1
36	8	*	1
101	9	*	1
123	10	*	1
179	11	*	1
119	12	*	1
149	13	*	1
160	14	*	1
93	15	*	1
48	16	*	1
58	17	*	1
158	18	*	1
83	19	*	1
1	20	*	1
68	21	*	1
17	22	*	1
144	23	*	1
153	24	*	1
5	25	*	1
60	26	*	1
142	27	*	1
166	28	*	1
16	29	*	1
97	30	*	1
132	31	*	1
98	32	*	1
122	33	*	1
172	34	*	1
91	35	*	1
126	36	*	1
56	37	*	1
67	38	*	1
82	39	*	1
4	40	*	1
147	41	*	1
32	42	*	1
125	43	*	1
100	44	*	1
11	45	*	1
74	46	*	1
127	47	*	1
7	48	*	1
26	49	*	1
54	50	*	1
62	51	*	1
156	52	*	1
143	53	*	1
57	54	*	1
103	55	*	1
151	56	*	1
31	57	*	1
34	58	*	1
8	59	*	1
53	60	*	1
28	61	*	1
148	62	*	1
171	43	8.99e-29/137aa/31.31%	1
52	63	*	1
94	64	*	1
85	65	*	1
102	66	*	1
106	67	*	1
129	68	*	1
0	69	*	1
14	70	*	1
135	71	*	1
61	72	*	1
45	73	*	1
128	74	*	1
133	75	*	1
92	76	*	1
41	77	*	1
33	78	*	1
108	79	*	1
110	80	*	1
50	81	*	1
79	82	*	1
130	83	*	1
146	84	*	1
20	85	*	1
65	86	*	1
159	87	*	1
165	88	*	1
170	89	*	1
6	90	*	1
168	91	*	1
183	92	*	1
81	93	*	1
88	94	*	1
27	95	*	1
55	96	*	1
51	97	*	1
15	98	*	1
141	99	*	1
24	100	*	1
145	101	*	1
69	102	*	1
174	103	*	1
107	104	*	1
131	105	*	1
40	106	*	1
42	107	*	1
25	108	*	1
89	109	*	1
138	110	*	1
2	111	*	1
188	112	*	1
189	113	*	1
117	114	*	1
137	115	*	1
164	116	*	1
184	117	*	1
70	118	*	1
21	119	*	1
30	120	*	1
136	121	*	1
59	122	*	1
104	123	*	1
111	124	*	1
12	125	*	1
178	126	*	1
116	127	*	1
163	128	*	1
167	129	*	1
134	130	*	1
109	131	*	1
155	132	*	1
43	133	*	1
19	134	*	1
47	135	*	1
66	136	*	1
150	137	*	1
162	138	*	1
80	139	*	1
161	140	*	1
72	141	*	1
182	142	*	1
38	143	*	1
112	144	*	1
176	145	*	1
187	146	*	1
175	147	*	1
29	148	*	1
124	149	*	1
22	150	*	1
44	151	*	1
84	152	*	1
173	153	*	1
75	154	*	1
77	155	*	1
177	156	*	1
87	157	*	1
139	158	*	1
99	159	*	1
3	160	*	1
10	161	*	1
23	162	*	1
120	163	*	1
180	164	*	1
39	165	*	1
71	166	*	1
96	167	*	1
9	168	*	1
73	169	*	1
76	170	*	1
115	171	*	1
157	172	*	1
13	173	*	1
35	174	*	1
114	175	*	1
63	176	*	1
118	177	*	1
86	178	*	1
105	179	*	1
95	180	*	1
152	181	*	1
154	182	*	1
169	183	*	1
181	184	*	1
37	185	*	1
186	186	*	1
90	187	*	1
121	188	*	1
